20
 energy: -19.993837369570 gnorm: 0.000026641806 xtb: 6.5.1 (579679a)
C            1.91167613041838       14.01053316800638        4.68909837017423
C            1.85010884070904       12.60065518207088        5.26380462874386
C            2.33919350510517       11.55625910087137        4.26322243930676
C            2.28799986130113       10.14192304025333        4.83545141151395
C            2.77803419750745        9.09733184694224        3.83555658212678
C            2.73073762001540        7.68936120157888        4.41628247101341
H            3.08252214957043        6.96174759165928        3.68845670012210
H            1.55892110036170       14.73762255423469        5.41699868787090
H            1.29092205012691       14.08699773404457        3.79889217478396
H            2.93314661305565       14.26644668571748        4.41563294200166
H            0.82144464896748       12.37048369185116        5.55104105798376
H            2.46381636987503       12.54987364624292        6.16626994262833
H            3.36603017954747       11.79049599865041        3.97169354193747
H            1.72233621134172       11.60401806897859        3.36242706036454
H            1.26129284405668        9.90728322890929        5.12708417826316
H            2.90489746014891       10.09477946610607        5.73626678659949
H            3.80319278140440        9.33380047683416        3.54096800109787
H            2.15832969894631        9.14018660962964        2.93680063637873
H            1.71339399931450        7.42755584076269        4.69932392510707
H            3.35939373822625        7.62084886665594        5.30158246198196
