20
 energy: -19.985543347435 gnorm: 0.011587643636 xtb: 6.5.1 (579679a)
C            2.28634743408260       13.83459622005450        4.67408427964939
C            2.57718373745881       12.34072867214470        4.76770474642218
C            1.39754346294596       11.52265641732631        4.24292570021848
C            1.57226548777865        9.98684885647091        4.24296854771830
C            2.94401422779834        9.45906315664651        4.66241353532295
C            2.96436317099873        7.93442068075914        4.65593144201295
H            3.94750192237848        7.56412337483463        4.93768303035548
H            3.12123425083757       14.41174094868871        5.06515182895343
H            1.39608606038679       14.08843056949053        5.24598674222759
H            2.12152273619611       14.12812940506485        3.63932248107185
H            2.77450878379171       12.08306074949533        5.80960329380741
H            3.47413016596836       12.11744094590458        4.18892960623875
H            1.19513019389824       11.85547405560622        3.22225599286673
H            0.51863220682636       11.78010705176483        4.83783159275136
H            1.35638209749403        9.60483697746160        3.24289848344381
H            0.83150856254305        9.54672118341602        4.91458761696707
H            3.19037390103767        9.81243156924837        5.66430606665361
H            3.70954520270632        9.82628085952163        3.97685099143581
H            2.72456655573228        7.55201300161824        3.66581449587049
H            2.23454983913810        7.53909930448255        5.35960352600978
20
 energy: -19.985755168587 gnorm: 0.001633174960 xtb: 6.5.1 (579679a)
C            2.28676458294521       13.83495407667439        4.67231357636788
C            2.57969336224266       12.34127650369423        4.76174733147323
C            1.39428239633320       11.52223995807565        4.25163915971442
C            1.57538088659239        9.98724874238056        4.23420117936384
C            2.94214329984303        9.45858799338050        4.66860732092914
C            2.96360261726628        7.93402375282249        4.65757505685572
H            3.94554481198767        7.56360927390254        4.94324442577957
H            3.12326540464255       14.41226347410793        5.05961783556025
H            1.39962879070227       14.08713061053708        5.24976537810949
H            2.11570213526220       14.12977155477575        3.63901380182923
H            2.78534700089827       12.08380254851006        5.80228751479538
H            3.47207680871428       12.11821947946714        4.17606366098642
H            1.18644008088102       11.85815979802934        3.23262651357332
H            0.51792006796835       11.77646643596460        4.85136960482547
H            1.36384926903599        9.60924615320684        3.23186039007400
H            0.83229090912518        9.54313572805597        4.90129057184913
H            3.18072849544474        9.81032199836342        5.67284250671642
H            3.71299541609016        9.82716473964527        3.98945466660521
H            2.72936056518575        7.55426148033414        3.66512113929602
H            2.23037309883696        7.53631969807227        5.35621236529327
20
 energy: -19.985869733633 gnorm: 0.004422450604 xtb: 6.5.1 (579679a)
C            2.28730333489541       13.83517480338963        4.66946551122972
C            2.58372261873435       12.34180634849603        4.75261871464478
C            1.39203504492785       11.52203781569678        4.25795500030597
C            1.57774482243820        9.98746414926010        4.22792848558795
C            2.93935101416200        9.45819888614017        4.67819371930569
C            2.96221135516695        7.93370603090400        4.66010762205494
H            3.94143336280565        7.56289047178854        4.95460625297850
H            3.12739699461563       14.41298456821917        5.04826346165087
H            1.40671857549862       14.08420389077149        5.25829186401784
H            2.10322503470999       14.13247208944697        3.63899442806077
H            2.80847670376596       12.08393352085210        5.78982593500129
H            3.46570397652625       12.12029026283354        4.15106363242475
H            1.16247068517663       11.86582664252243        3.24484926867096
H            0.52695292294391       11.76799790463847        4.87656910753188
H            1.38507146569602        9.62115698034159        3.21785774873606
H            0.82395563014928        9.53179339016320        4.87711242782958
H            3.16033514378169        9.80520586821477        5.68793684414503
H            3.72209929632718        9.83070117268620        4.01384532700020
H            2.73951096902794        7.55914971732435        3.66297494069612
H            2.22167104864865        7.53120948631065        5.34839370812453
20
 energy: -19.985906655140 gnorm: 0.002323688899 xtb: 6.5.1 (579679a)
C            2.28735505725274       13.83526550810487        4.66895864417032
C            2.58546162164340       12.34199822922519        4.74817500891556
C            1.39239793537071       11.52204256889188        4.25744363854727
C            1.57768488759414        9.98749386501689        4.22855196642926
C            2.93781428396977        9.45803001925939        4.68271228284582
C            2.96194128433098        7.93359048338924        4.66053368156697
H            3.93966462922188        7.56245653023345        4.95960549178245
H            3.12922142738148       14.41342484690906        5.04328483579737
H            1.41001594293761       14.08278839588327        5.26325481648819
H            2.09688741749588       14.13366882073166        3.63997415028058
H            2.81676793826081       12.08230973425925        5.78306535500571
H            3.46408895433529       12.12256298567031        4.14070600353761
H            1.15178245856550       11.86690851032885        3.24778800223403
H            0.53344609007728       11.76616894325470        4.88588185276812
H            1.39550413213966        9.62491169370451        3.21480895625426
H            0.81815979018619        9.52883603248276        4.86807323275117
H            3.15292400692869        9.80190618563549        5.69495405154848
H            3.72355584284406        9.83343402248123        4.02421338905483
H            2.74486303929153        7.56154930962376        3.66121299119016
H            2.21785326017055        7.52885731491439        5.34365564882928
20
 energy: -19.985923767206 gnorm: 0.000458990282 xtb: 6.5.1 (579679a)
C            2.28713717672792       13.83541924004570        4.66867940025911
C            2.58736833354882       12.34233713766146        4.74334410288104
C            1.39300318381808       11.52211117036307        4.25645735189470
C            1.57751105929875        9.98747434867689        4.22969791483488
C            2.93618140060758        9.45772226601045        4.68764452828465
C            2.96163089094296        7.93337664661181        4.66061741968817
H            3.93766148109279        7.56196062281002        4.96477707439715
H            3.13097123486731       14.41389193016497        5.03801949594973
H            1.41360760513380       14.08111782044905        5.26929958345293
H            2.08935909168457       14.13519131253195        3.64147247619807
H            2.82407687993430       12.07996210357932        5.77575828137114
H            3.46349353215879       12.12611044199178        4.13072643168739
H            1.14314264545952       11.86636425741195        3.24989207750488
H            0.53948057769650       11.76605209018189        4.89305638315477
H            1.40456020007327        9.62674548825209        3.21321917496403
H            0.81301925000179        9.52781241299333        4.86086929285052
H            3.14676223165350        9.79758992245191        5.70243290472647
H            3.72379120370643        9.83664001391074        4.03431247646238
H            2.75107853282999        7.56433570286600        3.65879767766819
H            2.21355348876147        7.52598907103577        5.33777995176723
20
 energy: -19.985930564512 gnorm: 0.000776919380 xtb: 6.5.1 (579679a)
C            2.28671506415115       13.83559789514823        4.66901447126556
C            2.58881155852083       12.34268917332608        4.73968035649920
C            1.39368132606227       11.52222598268853        4.25510856901891
C            1.57716693427169        9.98739753967546        4.23117031222000
C            2.93495974172132        9.45739543919351        4.69139027301878
C            2.96156986528489        7.93314302187595        4.66010354683027
H            3.93613042575261        7.56147922159171        4.96859343732864
H            3.13220059847044       14.41433900604780        5.03409148101758
H            1.41655253924021       14.07973412701113        5.27509991641519
H            2.08259716784498       14.13651700776095        3.64340557305298
H            2.82861709049522       12.07800916832992        5.77050733491091
H            3.46364668809344       12.12920554723217        4.12405774511250
H            1.14080812218118       11.86462873972213        3.24941743042409
H            0.54229352194347       11.76756126977825        4.89414885985481
H            1.40764157914297        9.62590694104895        3.21430808387197
H            0.81064444503705        9.52901212307903        4.85960110131885
H            3.14319547586425        9.79410643105889        5.70783827946328
H            3.72338129782666        9.83906287888546        4.04109197680418
H            2.75671535195149        7.56669579330801        3.65617329866096
H            2.21006120614203        7.52349669323804        5.33205195290877
20
 energy: -19.985936783106 gnorm: 0.000723561295 xtb: 6.5.1 (579679a)
C            2.28625669107434       13.83571630736854        4.66970791129927
C            2.58960188262400       12.34294476904551        4.73771793399841
C            1.39431675193993       11.52235884724410        4.25373064855310
C            1.57677604732480        9.98729249764149        4.23263873303410
C            2.93433142498610        9.45715827604062        4.69341265226041
C            2.96170078452745        7.93298735327756        4.65928892080295
H            3.93512337762511        7.56109492429691        4.97099527756512
H            3.13292607034083       14.41469126724511        5.03158543292951
H            1.41865477928729       14.07879912544700        5.27976673022866
H            2.07747066007114       14.13735668270138        3.64530543113732
H            2.83071908453459       12.07682439596972        5.76786996226658
H            3.46392058872058       12.13114581620778        4.12083660195112
H            1.14325010980580       11.86270005849214        3.24699983846831
H            0.54232364923077       11.76974934174659        4.89096223306537
H            1.40604569343341        9.62354072345708        3.21691525187700
H            0.81051193650810        9.53120356733433        4.86287339151649
H            3.14170855024477        9.79202814835342        5.71061050481348
H            3.72300318447367        9.84044378834337        4.04436732848951
H            2.76108836378605        7.56836752276482        3.65390285958523
H            2.20766036945943        7.52180058702269        5.32736635615547
20
 energy: -19.985943632862 gnorm: 0.000286647025 xtb: 6.5.1 (579679a)
C            2.28570984819780       13.83578827122085        4.67067226314696
C            2.59057823363993       12.34317844220172        4.73542197742968
C            1.39512378987880       11.52250212778846        4.25200389568408
C            1.57628955530075        9.98718568781142        4.23448411567534
C            2.93362160728894        9.45695492784396        4.69580724915362
C            2.96193148838220        7.93287942023121        4.65820756954567
H            3.93375191729703        7.56070423525970        4.97458092748948
H            3.13414286503761       14.41506435904300        5.02794254208224
H            1.42169280950596       14.07757962637878        5.28630338288976
H            2.07039852293643       14.13825556550569        3.64785893580660
H            2.83394178366774       12.07561084485340        5.76478599547473
H            3.46380255076996       12.13302200399009        4.11649131050960
H            1.14697204843507       11.86070238891888        3.24340465403799
H            0.54174912395288       11.77230064743661        4.88644734897987
H            1.40321971869769        9.62060252313974        3.22017167253019
H            0.81055402331429        9.53362949266269        4.86786157680659
H            3.13919560885944        9.78985261683451        5.71398211926090
H            3.72316042167959        9.84204189631089        4.04870215210172
H            2.76730044933841        7.57063946266359        3.65078950841609
H            2.20425363381764        7.51970945990496        5.32093480297632
20
 energy: -19.985947613266 gnorm: 0.000182662274 xtb: 6.5.1 (579679a)
C            2.28544117282324       13.83583232412419        4.67133888220033
C            2.59138977220554       12.34333775413489        4.73324422928883
C            1.39563210601671       11.52254557938628        4.25085132613526
C            1.57593205815270        9.98715939497439        4.23569250240711
C            2.93285132120321        9.45680030978323        4.69800026500342
C            2.96217066710189        7.93283201166644        4.65753003227831
H            3.93257311315483        7.56046886458492        4.97796676712025
H            3.13540420830539       14.41530912145173        5.02458724746084
H            1.42461506375224       14.07653760003943        5.29181522546690
H            2.06442424630684       14.13910827687952        3.64999421161696
H            2.83730696691627       12.07460819746066        5.76173707562150
H            3.46329937662545       12.13445549488660        4.11205577378748
H            1.14873953005577       11.85946412853804        3.24128056210289
H            0.54165958735252       11.77392628517912        4.88381408694867
H            1.40178025626223        9.61880292132403        3.22223908079352
H            0.81024841479954        9.53503407798880        4.87052668411827
H            3.13625225449663        9.78802699296205        5.71714215851527
H            3.72348728783063        9.84346461195664        4.05311743602802
H            2.77280242096302        7.57263996382456        3.64839531947921
H            2.20138017567350        7.51785008885465        5.31552513362440
